<?xml version="1.0" encoding="UTF-8"?>

<!-- generated on 月 10/22 18:22:31 2018 by SUMO gui Version 0.30.0
<?xml version="1.0" encoding="UTF-8"?>

<configuration xmlns:xsi="http://www.w3.org/2001/XMLSchema-instance" xsi:noNamespaceSchemaLocation="http://sumo.dlr.de/xsd/sumoConfiguration.xsd">

    <input>
        <net-file value="../data/ito.net.xml"/>
        <route-files value="../data/h27_flow_data_test.rou.xml"/>
        <additional-files value="../data/ito.poly.xml"/>
    </input>

    <output>
        <tripinfo-output value="../output/tripinfo.xml"/>
    </output>

    <time>
        <begin value="0"/>
        <end value="43500"/>
    </time>

    <processing>
        <time-to-teleport value="-1"/>
    </processing>

    <traci_server>
        <remote-port value="8873"/>
    </traci_server>

</configuration>
-->

<tripinfos xmlns:xsi="http://www.w3.org/2001/XMLSchema-instance" xsi:noNamespaceSchemaLocation="http://sumo.dlr.de/xsd/tripinfo_file.xsd">
    <tripinfo id="7_1.0" depart="0.00" departLane="67209975_0" departPos="5.10" departSpeed="0.00" departDelay="0.00" arrival="228.00" arrivalLane="84515126_0" arrivalPos="177.75" arrivalSpeed="4.39" duration="228.00" routeLength="1851.99" waitSteps="56" timeLoss="81.24" rerouteNo="0" devices="tripinfo_7_1.0" vType="DEFAULT_VEHTYPE" speedFactor="1.00" vaporized=""/>
    <tripinfo id="7_1.1" depart="12.00" departLane="67209975_0" departPos="5.10" departSpeed="0.00" departDelay="-0.37" arrival="244.00" arrivalLane="84515126_0" arrivalPos="177.75" arrivalSpeed="5.45" duration="232.00" routeLength="1851.99" waitSteps="53" timeLoss="84.63" rerouteNo="0" devices="tripinfo_7_1.1" vType="DEFAULT_VEHTYPE" speedFactor="1.00" vaporized=""/>
    <tripinfo id="7_2.0" depart="0.00" departLane="-84515126_0" departPos="5.10" departSpeed="0.00" departDelay="0.00" arrival="255.00" arrivalLane="420910011#1_0" arrivalPos="105.76" arrivalSpeed="27.78" duration="255.00" routeLength="1851.44" waitSteps="76" timeLoss="109.48" rerouteNo="0" devices="tripinfo_7_2.0" vType="DEFAULT_VEHTYPE" speedFactor="1.00" vaporized=""/>
    <tripinfo id="7_1.2" depart="24.00" departLane="67209975_0" departPos="5.10" departSpeed="0.00" departDelay="-0.74" arrival="259.00" arrivalLane="84515126_0" arrivalPos="177.75" arrivalSpeed="4.88" duration="235.00" routeLength="1851.99" waitSteps="56" timeLoss="87.74" rerouteNo="0" devices="tripinfo_7_1.2" vType="DEFAULT_VEHTYPE" speedFactor="1.00" vaporized=""/>
    <tripinfo id="7_3.0" depart="0.00" departLane="61843390#0_0" departPos="5.10" departSpeed="0.00" departDelay="0.00" arrival="288.00" arrivalLane="420910011#1_1" arrivalPos="105.76" arrivalSpeed="26.68" duration="288.00" routeLength="6076.22" waitSteps="37" timeLoss="69.10" rerouteNo="0" devices="tripinfo_7_3.0" vType="DEFAULT_VEHTYPE" speedFactor="1.00" vaporized=""/>
    <tripinfo id="7_3.1" depart="26.00" departLane="61843390#0_0" departPos="5.10" departSpeed="0.00" departDelay="-0.47" arrival="360.00" arrivalLane="420910011#1_1" arrivalPos="105.76" arrivalSpeed="26.66" duration="334.00" routeLength="6076.22" waitSteps="76" timeLoss="114.84" rerouteNo="0" devices="tripinfo_7_3.1" vType="DEFAULT_VEHTYPE" speedFactor="1.00" vaporized=""/>
    <tripinfo id="7_5.0" depart="0.00" departLane="223785629_0" departPos="4.99" departSpeed="0.00" departDelay="0.00" arrival="361.00" arrivalLane="420910011#1_0" arrivalPos="105.76" arrivalSpeed="27.68" duration="361.00" routeLength="3349.78" waitSteps="111" timeLoss="159.22" rerouteNo="0" devices="tripinfo_7_5.0" vType="DEFAULT_VEHTYPE" speedFactor="1.00" vaporized=""/>
    <tripinfo id="7_3.2" depart="52.00" departLane="61843390#0_0" departPos="5.10" departSpeed="0.00" departDelay="-0.94" arrival="363.00" arrivalLane="420910011#1_0" arrivalPos="105.76" arrivalSpeed="26.72" duration="311.00" routeLength="6076.22" waitSteps="63" timeLoss="91.75" rerouteNo="0" devices="tripinfo_7_3.2" vType="DEFAULT_VEHTYPE" speedFactor="1.00" vaporized=""/>
    <tripinfo id="7_4.0" depart="0.00" departLane="161947715#1_0" departPos="5.10" departSpeed="0.00" departDelay="0.00" arrival="375.00" arrivalLane="420910011#1_1" arrivalPos="105.76" arrivalSpeed="27.53" duration="375.00" routeLength="2161.92" waitSteps="117" timeLoss="173.98" rerouteNo="0" devices="tripinfo_7_4.0" vType="DEFAULT_VEHTYPE" speedFactor="1.00" vaporized=""/>
    <tripinfo id="7_3.3" depart="79.00" departLane="61843390#0_0" departPos="5.10" departSpeed="0.00" departDelay="-0.41" arrival="377.00" arrivalLane="420910011#1_0" arrivalPos="105.76" arrivalSpeed="27.37" duration="298.00" routeLength="6076.22" waitSteps="39" timeLoss="78.20" rerouteNo="0" devices="tripinfo_7_3.3" vType="DEFAULT_VEHTYPE" speedFactor="1.00" vaporized=""/>
    <tripinfo id="7_1.5" depart="61.00" departLane="67209975_0" departPos="5.10" departSpeed="0.00" departDelay="-0.85" arrival="408.00" arrivalLane="84515126_0" arrivalPos="177.75" arrivalSpeed="4.79" duration="347.00" routeLength="1851.99" waitSteps="152" timeLoss="199.98" rerouteNo="0" devices="tripinfo_7_1.5" vType="DEFAULT_VEHTYPE" speedFactor="1.00" vaporized=""/>
    <tripinfo id="7_1.8" depart="98.00" departLane="67209975_0" departPos="5.10" departSpeed="0.00" departDelay="-0.97" arrival="414.00" arrivalLane="84515126_0" arrivalPos="177.75" arrivalSpeed="4.97" duration="316.00" routeLength="1851.99" waitSteps="115" timeLoss="169.48" rerouteNo="0" devices="tripinfo_7_1.8" vType="DEFAULT_VEHTYPE" speedFactor="1.00" vaporized=""/>
    <tripinfo id="7_1.9" depart="111.00" departLane="67209975_0" departPos="5.10" departSpeed="0.00" departDelay="-0.34" arrival="420.00" arrivalLane="84515126_0" arrivalPos="177.75" arrivalSpeed="5.11" duration="309.00" routeLength="1851.99" waitSteps="113" timeLoss="162.26" rerouteNo="0" devices="tripinfo_7_1.9" vType="DEFAULT_VEHTYPE" speedFactor="1.00" vaporized=""/>
    <tripinfo id="7_1.11" depart="136.00" departLane="67209975_0" departPos="5.10" departSpeed="0.00" departDelay="-0.08" arrival="425.00" arrivalLane="84515126_0" arrivalPos="177.75" arrivalSpeed="5.33" duration="289.00" routeLength="1851.99" waitSteps="105" timeLoss="142.74" rerouteNo="0" devices="tripinfo_7_1.11" vType="DEFAULT_VEHTYPE" speedFactor="1.00" vaporized=""/>
    <tripinfo id="7_1.3" depart="37.00" departLane="67209975_0" departPos="5.10" departSpeed="0.00" departDelay="-0.11" arrival="466.00" arrivalLane="161947715#0_0" arrivalPos="11.96" arrivalSpeed="5.40" duration="429.00" routeLength="2153.42" waitSteps="180" timeLoss="229.31" rerouteNo="1" devices="tripinfo_7_1.3" vType="DEFAULT_VEHTYPE" speedFactor="1.00" vaporized=""/>
    <tripinfo id="7_1.4" depart="49.00" departLane="67209975_0" departPos="5.10" departSpeed="0.00" departDelay="-0.48" arrival="470.00" arrivalLane="161947715#0_0" arrivalPos="11.96" arrivalSpeed="4.54" duration="421.00" routeLength="2153.42" waitSteps="162" timeLoss="220.91" rerouteNo="1" devices="tripinfo_7_1.4" vType="DEFAULT_VEHTYPE" speedFactor="1.00" vaporized=""/>
    <tripinfo id="7_3.5" depart="132.00" departLane="61843390#0_0" departPos="5.10" departSpeed="0.00" departDelay="-0.35" arrival="475.00" arrivalLane="420910011#1_0" arrivalPos="105.76" arrivalSpeed="27.31" duration="343.00" routeLength="6076.22" waitSteps="87" timeLoss="124.03" rerouteNo="0" devices="tripinfo_7_3.5" vType="DEFAULT_VEHTYPE" speedFactor="1.00" vaporized=""/>
    <tripinfo id="7_1.6" depart="74.00" departLane="67209975_0" departPos="5.10" departSpeed="0.00" departDelay="-0.23" arrival="475.00" arrivalLane="161947715#0_0" arrivalPos="11.96" arrivalSpeed="4.30" duration="401.00" routeLength="2153.42" waitSteps="135" timeLoss="200.18" rerouteNo="1" devices="tripinfo_7_1.6" vType="DEFAULT_VEHTYPE" speedFactor="1.00" vaporized=""/>
    <tripinfo id="7_3.4" depart="105.00" departLane="61843390#0_0" departPos="5.10" departSpeed="0.00" departDelay="-0.88" arrival="478.00" arrivalLane="420910011#1_0" arrivalPos="105.76" arrivalSpeed="27.70" duration="373.00" routeLength="6076.22" waitSteps="110" timeLoss="153.79" rerouteNo="0" devices="tripinfo_7_3.4" vType="DEFAULT_VEHTYPE" speedFactor="1.00" vaporized=""/>
    <tripinfo id="7_1.7" depart="86.00" departLane="67209975_0" departPos="5.10" departSpeed="0.00" departDelay="-0.60" arrival="480.00" arrivalLane="161947715#0_0" arrivalPos="11.96" arrivalSpeed="5.00" duration="394.00" routeLength="2153.42" waitSteps="126" timeLoss="193.51" rerouteNo="1" devices="tripinfo_7_1.7" vType="DEFAULT_VEHTYPE" speedFactor="1.00" vaporized=""/>
    <tripinfo id="7_1.10" depart="123.00" departLane="67209975_0" departPos="5.10" departSpeed="0.00" departDelay="-0.71" arrival="485.00" arrivalLane="161947715#0_0" arrivalPos="11.96" arrivalSpeed="4.83" duration="362.00" routeLength="2153.42" waitSteps="99" timeLoss="161.25" rerouteNo="1" devices="tripinfo_7_1.10" vType="DEFAULT_VEHTYPE" speedFactor="1.00" vaporized=""/>
    <tripinfo id="7_3.7" depart="185.00" departLane="61843390#0_0" departPos="5.10" departSpeed="0.00" departDelay="-0.29" arrival="490.00" arrivalLane="420910011#1_1" arrivalPos="105.76" arrivalSpeed="26.99" duration="305.00" routeLength="6076.22" waitSteps="48" timeLoss="85.23" rerouteNo="0" devices="tripinfo_7_3.7" vType="DEFAULT_VEHTYPE" speedFactor="1.00" vaporized=""/>
    <tripinfo id="7_3.6" depart="158.00" departLane="61843390#0_0" departPos="5.10" departSpeed="0.00" departDelay="-0.82" arrival="490.00" arrivalLane="420910011#1_0" arrivalPos="105.76" arrivalSpeed="27.06" duration="332.00" routeLength="6076.22" waitSteps="68" timeLoss="112.34" rerouteNo="0" devices="tripinfo_7_3.6" vType="DEFAULT_VEHTYPE" speedFactor="1.00" vaporized=""/>
    <tripinfo id="7_2.1" depart="240.00" departLane="-84515126_0" departPos="5.10" departSpeed="0.00" departDelay="0.00" arrival="492.00" arrivalLane="420910011#1_1" arrivalPos="105.76" arrivalSpeed="27.57" duration="252.00" routeLength="1851.44" waitSteps="66" timeLoss="106.83" rerouteNo="0" devices="tripinfo_7_2.1" vType="DEFAULT_VEHTYPE" speedFactor="1.00" vaporized=""/>
    <tripinfo id="7_4.1" depart="257.00" departLane="161947715#1_0" departPos="5.10" departSpeed="0.00" departDelay="-0.14" arrival="494.00" arrivalLane="420910011#1_0" arrivalPos="105.76" arrivalSpeed="27.27" duration="237.00" routeLength="2161.92" waitSteps="3" timeLoss="35.99" rerouteNo="0" devices="tripinfo_7_4.1" vType="DEFAULT_VEHTYPE" speedFactor="1.00" vaporized=""/>
    <tripinfo id="7_1.12" depart="148.00" departLane="67209975_0" departPos="5.10" departSpeed="0.00" departDelay="-0.45" arrival="496.00" arrivalLane="84515126_0" arrivalPos="177.75" arrivalSpeed="4.74" duration="348.00" routeLength="1851.99" waitSteps="151" timeLoss="200.71" rerouteNo="0" devices="tripinfo_7_1.12" vType="DEFAULT_VEHTYPE" speedFactor="1.00" vaporized=""/>
    <tripinfo id="7_1.15" depart="185.00" departLane="67209975_0" departPos="5.10" departSpeed="0.00" departDelay="-0.56" arrival="499.00" arrivalLane="84515126_0" arrivalPos="177.75" arrivalSpeed="5.31" duration="314.00" routeLength="1851.99" waitSteps="113" timeLoss="166.91" rerouteNo="0" devices="tripinfo_7_1.15" vType="DEFAULT_VEHTYPE" speedFactor="1.00" vaporized=""/>
    <tripinfo id="7_1.14" depart="173.00" departLane="67209975_0" departPos="5.10" departSpeed="0.00" departDelay="-0.19" arrival="502.00" arrivalLane="84515126_0" arrivalPos="177.75" arrivalSpeed="5.53" duration="329.00" routeLength="1851.99" waitSteps="123" timeLoss="182.12" rerouteNo="0" devices="tripinfo_7_1.14" vType="DEFAULT_VEHTYPE" speedFactor="1.00" vaporized=""/>
    <tripinfo id="7_1.18" depart="222.00" departLane="67209975_0" departPos="5.10" departSpeed="0.00" departDelay="-0.68" arrival="508.00" arrivalLane="84515126_0" arrivalPos="177.75" arrivalSpeed="4.53" duration="286.00" routeLength="1851.99" waitSteps="84" timeLoss="139.07" rerouteNo="0" devices="tripinfo_7_1.18" vType="DEFAULT_VEHTYPE" speedFactor="1.00" vaporized=""/>
    <tripinfo id="7_1.16" depart="197.00" departLane="67209975_0" departPos="5.10" departSpeed="0.00" departDelay="-0.94" arrival="511.00" arrivalLane="84515126_0" arrivalPos="177.75" arrivalSpeed="4.34" duration="314.00" routeLength="1851.99" waitSteps="97" timeLoss="167.44" rerouteNo="0" devices="tripinfo_7_1.16" vType="DEFAULT_VEHTYPE" speedFactor="1.00" vaporized=""/>
    <tripinfo id="7_1.20" depart="247.00" departLane="67209975_0" departPos="5.10" departSpeed="0.00" departDelay="-0.42" arrival="517.00" arrivalLane="84515126_0" arrivalPos="177.75" arrivalSpeed="4.76" duration="270.00" routeLength="1851.99" waitSteps="86" timeLoss="122.69" rerouteNo="0" devices="tripinfo_7_1.20" vType="DEFAULT_VEHTYPE" speedFactor="1.00" vaporized=""/>
    <tripinfo id="7_1.13" depart="160.00" departLane="67209975_0" departPos="5.10" departSpeed="0.00" departDelay="-0.82" arrival="564.00" arrivalLane="161947715#0_0" arrivalPos="11.96" arrivalSpeed="5.45" duration="404.00" routeLength="2153.42" waitSteps="153" timeLoss="203.43" rerouteNo="1" devices="tripinfo_7_1.13" vType="DEFAULT_VEHTYPE" speedFactor="1.00" vaporized=""/>
    <tripinfo id="7_1.17" depart="210.00" departLane="67209975_0" departPos="5.10" departSpeed="0.00" departDelay="-0.31" arrival="569.00" arrivalLane="161947715#0_0" arrivalPos="11.96" arrivalSpeed="4.49" duration="359.00" routeLength="2153.42" waitSteps="88" timeLoss="158.58" rerouteNo="1" devices="tripinfo_7_1.17" vType="DEFAULT_VEHTYPE" speedFactor="1.00" vaporized=""/>
    <tripinfo id="7_1.19" depart="235.00" departLane="67209975_0" departPos="5.10" departSpeed="0.00" departDelay="-0.05" arrival="573.00" arrivalLane="161947715#0_0" arrivalPos="11.96" arrivalSpeed="5.25" duration="338.00" routeLength="2153.42" waitSteps="71" timeLoss="138.11" rerouteNo="1" devices="tripinfo_7_1.19" vType="DEFAULT_VEHTYPE" speedFactor="1.00" vaporized=""/>
    <tripinfo id="7_1.21" depart="259.00" departLane="67209975_0" departPos="5.10" departSpeed="0.00" departDelay="-0.79" arrival="585.00" arrivalLane="84515126_0" arrivalPos="177.75" arrivalSpeed="5.07" duration="326.00" routeLength="1851.99" waitSteps="128" timeLoss="179.42" rerouteNo="0" devices="tripinfo_7_1.21" vType="DEFAULT_VEHTYPE" speedFactor="1.00" vaporized=""/>
    <tripinfo id="7_1.22" depart="272.00" departLane="67209975_0" departPos="5.10" departSpeed="0.00" departDelay="-0.16" arrival="588.00" arrivalLane="84515126_0" arrivalPos="177.75" arrivalSpeed="4.61" duration="316.00" routeLength="1851.99" waitSteps="114" timeLoss="168.81" rerouteNo="0" devices="tripinfo_7_1.22" vType="DEFAULT_VEHTYPE" speedFactor="1.00" vaporized=""/>
    <tripinfo id="7_1.28" depart="346.00" departLane="67209975_0" departPos="5.10" departSpeed="0.00" departDelay="-0.39" arrival="602.00" arrivalLane="84515126_0" arrivalPos="177.75" arrivalSpeed="4.74" duration="256.00" routeLength="1851.99" waitSteps="44" timeLoss="109.08" rerouteNo="0" devices="tripinfo_7_1.28" vType="DEFAULT_VEHTYPE" speedFactor="1.00" vaporized=""/>
    <tripinfo id="7_3.9" depart="238.00" departLane="61843390#0_0" departPos="5.10" departSpeed="0.00" departDelay="-0.23" arrival="604.00" arrivalLane="420910011#1_0" arrivalPos="105.76" arrivalSpeed="27.73" duration="366.00" routeLength="6076.22" waitSteps="98" timeLoss="146.86" rerouteNo="0" devices="tripinfo_7_3.9" vType="DEFAULT_VEHTYPE" speedFactor="1.00" vaporized=""/>
    <tripinfo id="7_3.10" depart="264.00" departLane="61843390#0_0" departPos="5.10" departSpeed="0.00" departDelay="-0.70" arrival="606.00" arrivalLane="420910011#1_1" arrivalPos="105.76" arrivalSpeed="27.16" duration="342.00" routeLength="6076.22" waitSteps="71" timeLoss="123.08" rerouteNo="0" devices="tripinfo_7_3.10" vType="DEFAULT_VEHTYPE" speedFactor="1.00" vaporized=""/>
    <tripinfo id="7_3.8" depart="211.00" departLane="61843390#0_0" departPos="5.10" departSpeed="0.00" departDelay="-0.76" arrival="606.00" arrivalLane="420910011#1_0" arrivalPos="105.76" arrivalSpeed="27.25" duration="395.00" routeLength="6076.22" waitSteps="125" timeLoss="175.28" rerouteNo="0" devices="tripinfo_7_3.8" vType="DEFAULT_VEHTYPE" speedFactor="1.00" vaporized=""/>
    <tripinfo id="7_3.11" depart="291.00" departLane="61843390#0_0" departPos="5.10" departSpeed="0.00" departDelay="-0.17" arrival="607.00" arrivalLane="420910011#1_0" arrivalPos="105.76" arrivalSpeed="27.56" duration="316.00" routeLength="6076.22" waitSteps="54" timeLoss="96.98" rerouteNo="0" devices="tripinfo_7_3.11" vType="DEFAULT_VEHTYPE" speedFactor="1.00" vaporized=""/>
    <tripinfo id="7_1.25" depart="309.00" departLane="67209975_0" departPos="5.10" departSpeed="0.00" departDelay="-0.27" arrival="639.00" arrivalLane="-223785629_0" arrivalPos="4.99" arrivalSpeed="4.72" duration="330.00" routeLength="3331.62" waitSteps="71" timeLoss="128.55" rerouteNo="1" devices="tripinfo_7_1.25" vType="DEFAULT_VEHTYPE" speedFactor="1.00" vaporized=""/>
    <tripinfo id="7_1.23" depart="284.00" departLane="67209975_0" departPos="5.10" departSpeed="0.00" departDelay="-0.53" arrival="661.00" arrivalLane="161947715#0_0" arrivalPos="11.96" arrivalSpeed="5.31" duration="377.00" routeLength="2153.42" waitSteps="112" timeLoss="176.03" rerouteNo="1" devices="tripinfo_7_1.23" vType="DEFAULT_VEHTYPE" speedFactor="1.00" vaporized=""/>
    <tripinfo id="7_1.24" depart="296.00" departLane="67209975_0" departPos="5.10" departSpeed="0.00" departDelay="-0.90" arrival="665.00" arrivalLane="161947715#0_0" arrivalPos="11.96" arrivalSpeed="5.11" duration="369.00" routeLength="2153.42" waitSteps="91" timeLoss="168.90" rerouteNo="1" devices="tripinfo_7_1.24" vType="DEFAULT_VEHTYPE" speedFactor="1.00" vaporized=""/>
    <tripinfo id="7_1.30" depart="371.00" departLane="67209975_0" departPos="5.10" departSpeed="0.00" departDelay="-0.13" arrival="669.00" arrivalLane="-223785629_0" arrivalPos="4.99" arrivalSpeed="5.11" duration="298.00" routeLength="3331.62" waitSteps="55" timeLoss="97.08" rerouteNo="1" devices="tripinfo_7_1.30" vType="DEFAULT_VEHTYPE" speedFactor="1.00" vaporized=""/>
    <tripinfo id="7_1.26" depart="321.00" departLane="67209975_0" departPos="5.10" departSpeed="0.00" departDelay="-0.65" arrival="670.00" arrivalLane="161947715#0_0" arrivalPos="11.96" arrivalSpeed="5.01" duration="349.00" routeLength="2153.42" waitSteps="66" timeLoss="148.53" rerouteNo="1" devices="tripinfo_7_1.26" vType="DEFAULT_VEHTYPE" speedFactor="1.00" vaporized=""/>
    <tripinfo id="7_1.27" depart="334.00" departLane="67209975_0" departPos="5.10" departSpeed="0.00" departDelay="-0.02" arrival="675.00" arrivalLane="161947715#0_0" arrivalPos="11.96" arrivalSpeed="5.21" duration="341.00" routeLength="2153.42" waitSteps="61" timeLoss="140.30" rerouteNo="1" devices="tripinfo_7_1.27" vType="DEFAULT_VEHTYPE" speedFactor="1.00" vaporized=""/>
    <tripinfo id="7_1.29" depart="358.00" departLane="67209975_0" departPos="5.10" departSpeed="0.00" departDelay="-0.76" arrival="680.00" arrivalLane="161947715#0_0" arrivalPos="11.96" arrivalSpeed="5.31" duration="322.00" routeLength="2153.42" waitSteps="45" timeLoss="121.72" rerouteNo="1" devices="tripinfo_7_1.29" vType="DEFAULT_VEHTYPE" speedFactor="1.00" vaporized=""/>
    <tripinfo id="7_1.33" depart="408.00" departLane="67209975_0" departPos="5.10" departSpeed="0.00" departDelay="-0.24" arrival="698.00" arrivalLane="84515126_0" arrivalPos="177.75" arrivalSpeed="4.45" duration="290.00" routeLength="1851.99" waitSteps="84" timeLoss="143.15" rerouteNo="0" devices="tripinfo_7_1.33" vType="DEFAULT_VEHTYPE" speedFactor="1.00" vaporized=""/>
    <tripinfo id="7_1.36" depart="445.00" departLane="67209975_0" departPos="5.10" departSpeed="0.00" departDelay="-0.36" arrival="701.00" arrivalLane="84515126_0" arrivalPos="177.75" arrivalSpeed="5.20" duration="256.00" routeLength="1851.99" waitSteps="52" timeLoss="109.52" rerouteNo="0" devices="tripinfo_7_1.36" vType="DEFAULT_VEHTYPE" speedFactor="1.00" vaporized=""/>
    <tripinfo id="7_3.13" depart="344.00" departLane="61843390#0_0" departPos="5.10" departSpeed="0.00" departDelay="-0.11" arrival="719.00" arrivalLane="420910011#1_0" arrivalPos="105.76" arrivalSpeed="27.25" duration="375.00" routeLength="6076.22" waitSteps="107" timeLoss="155.90" rerouteNo="0" devices="tripinfo_7_3.13" vType="DEFAULT_VEHTYPE" speedFactor="1.00" vaporized=""/>
    <tripinfo id="7_3.14" depart="370.00" departLane="61843390#0_0" departPos="5.10" departSpeed="0.00" departDelay="-0.58" arrival="721.00" arrivalLane="420910011#1_1" arrivalPos="105.76" arrivalSpeed="27.67" duration="351.00" routeLength="6076.22" waitSteps="81" timeLoss="131.69" rerouteNo="0" devices="tripinfo_7_3.14" vType="DEFAULT_VEHTYPE" speedFactor="1.00" vaporized=""/>
    <tripinfo id="7_3.12" depart="317.00" departLane="61843390#0_0" departPos="5.10" departSpeed="0.00" departDelay="-0.64" arrival="721.00" arrivalLane="420910011#1_0" arrivalPos="105.76" arrivalSpeed="27.64" duration="404.00" routeLength="6076.22" waitSteps="133" timeLoss="184.30" rerouteNo="0" devices="tripinfo_7_3.12" vType="DEFAULT_VEHTYPE" speedFactor="1.00" vaporized=""/>
    <tripinfo id="7_3.15" depart="397.00" departLane="61843390#0_0" departPos="5.10" departSpeed="0.00" departDelay="-0.05" arrival="722.00" arrivalLane="420910011#1_0" arrivalPos="105.76" arrivalSpeed="26.65" duration="325.00" routeLength="6076.22" waitSteps="64" timeLoss="105.87" rerouteNo="0" devices="tripinfo_7_3.15" vType="DEFAULT_VEHTYPE" speedFactor="1.00" vaporized=""/>
    <tripinfo id="7_2.2" depart="480.00" departLane="-84515126_0" departPos="5.10" departSpeed="0.00" departDelay="0.00" arrival="723.00" arrivalLane="420910011#1_1" arrivalPos="105.76" arrivalSpeed="27.67" duration="243.00" routeLength="1851.44" waitSteps="65" timeLoss="97.56" rerouteNo="0" devices="tripinfo_7_2.2" vType="DEFAULT_VEHTYPE" speedFactor="1.00" vaporized=""/>
    <tripinfo id="7_3.16" depart="423.00" departLane="61843390#0_0" departPos="5.10" departSpeed="0.00" departDelay="-0.52" arrival="724.00" arrivalLane="420910011#1_0" arrivalPos="105.76" arrivalSpeed="27.29" duration="301.00" routeLength="6076.22" waitSteps="39" timeLoss="81.72" rerouteNo="0" devices="tripinfo_7_3.16" vType="DEFAULT_VEHTYPE" speedFactor="1.00" vaporized=""/>
    <tripinfo id="7_1.32" depart="395.00" departLane="67209975_0" departPos="5.10" departSpeed="0.00" departDelay="-0.87" arrival="757.00" arrivalLane="161947715#0_0" arrivalPos="11.96" arrivalSpeed="5.01" duration="362.00" routeLength="2153.42" waitSteps="105" timeLoss="162.00" rerouteNo="1" devices="tripinfo_7_1.32" vType="DEFAULT_VEHTYPE" speedFactor="1.00" vaporized=""/>
    <tripinfo id="7_1.38" depart="470.00" departLane="67209975_0" departPos="5.10" departSpeed="0.00" departDelay="-0.10" arrival="757.00" arrivalLane="-223785629_0" arrivalPos="4.99" arrivalSpeed="4.28" duration="287.00" routeLength="3331.62" waitSteps="30" timeLoss="85.94" rerouteNo="1" devices="tripinfo_7_1.38" vType="DEFAULT_VEHTYPE" speedFactor="1.00" vaporized=""/>
    <tripinfo id="7_1.31" depart="383.00" departLane="67209975_0" departPos="5.10" departSpeed="0.00" departDelay="-0.50" arrival="761.00" arrivalLane="161947715#0_0" arrivalPos="11.96" arrivalSpeed="5.54" duration="378.00" routeLength="2153.42" waitSteps="115" timeLoss="177.90" rerouteNo="1" devices="tripinfo_7_1.31" vType="DEFAULT_VEHTYPE" speedFactor="1.00" vaporized=""/>
    <tripinfo id="7_1.34" depart="420.00" departLane="67209975_0" departPos="5.10" departSpeed="0.00" departDelay="-0.61" arrival="765.00" arrivalLane="161947715#0_0" arrivalPos="11.96" arrivalSpeed="4.56" duration="345.00" routeLength="2153.42" waitSteps="75" timeLoss="144.78" rerouteNo="1" devices="tripinfo_7_1.34" vType="DEFAULT_VEHTYPE" speedFactor="1.00" vaporized=""/>
    <tripinfo id="7_1.37" depart="457.00" departLane="67209975_0" departPos="5.10" departSpeed="0.00" departDelay="-0.73" arrival="827.00" arrivalLane="161947715#0_0" arrivalPos="11.96" arrivalSpeed="5.16" duration="370.00" routeLength="2153.42" waitSteps="110" timeLoss="169.99" rerouteNo="1" devices="tripinfo_7_1.37" vType="DEFAULT_VEHTYPE" speedFactor="1.00" vaporized=""/>
    <tripinfo id="7_1.35" depart="432.00" departLane="67209975_0" departPos="5.10" departSpeed="0.00" departDelay="-0.99" arrival="832.00" arrivalLane="161947715#0_0" arrivalPos="11.96" arrivalSpeed="4.73" duration="400.00" routeLength="2153.42" waitSteps="118" timeLoss="200.42" rerouteNo="1" devices="tripinfo_7_1.35" vType="DEFAULT_VEHTYPE" speedFactor="1.00" vaporized=""/>
    <tripinfo id="7_3.18" depart="476.00" departLane="61843390#0_0" departPos="5.10" departSpeed="0.00" departDelay="-0.46" arrival="834.00" arrivalLane="420910011#1_0" arrivalPos="105.76" arrivalSpeed="27.39" duration="358.00" routeLength="6076.22" waitSteps="86" timeLoss="138.79" rerouteNo="0" devices="tripinfo_7_3.18" vType="DEFAULT_VEHTYPE" speedFactor="1.00" vaporized=""/>
    <tripinfo id="7_3.17" depart="449.00" departLane="61843390#0_0" departPos="5.10" departSpeed="0.00" departDelay="-0.99" arrival="835.00" arrivalLane="420910011#1_0" arrivalPos="105.76" arrivalSpeed="27.11" duration="386.00" routeLength="6076.22" waitSteps="117" timeLoss="167.06" rerouteNo="0" devices="tripinfo_7_3.17" vType="DEFAULT_VEHTYPE" speedFactor="1.00" vaporized=""/>
    <tripinfo id="7_3.19" depart="502.00" departLane="61843390#0_0" departPos="5.10" departSpeed="0.00" departDelay="-0.93" arrival="836.00" arrivalLane="420910011#1_1" arrivalPos="105.76" arrivalSpeed="27.08" duration="334.00" routeLength="6076.22" waitSteps="66" timeLoss="114.85" rerouteNo="0" devices="tripinfo_7_3.19" vType="DEFAULT_VEHTYPE" speedFactor="1.00" vaporized=""/>
    <tripinfo id="7_3.20" depart="529.00" departLane="61843390#0_0" departPos="5.10" departSpeed="0.00" departDelay="-0.40" arrival="837.00" arrivalLane="420910011#1_0" arrivalPos="105.76" arrivalSpeed="26.21" duration="308.00" routeLength="6076.22" waitSteps="48" timeLoss="88.68" rerouteNo="0" devices="tripinfo_7_3.20" vType="DEFAULT_VEHTYPE" speedFactor="1.00" vaporized=""/>
    <tripinfo id="7_4.2" depart="514.00" departLane="161947715#1_0" departPos="5.10" departSpeed="0.00" departDelay="-0.28" arrival="839.00" arrivalLane="420910011#1_0" arrivalPos="105.76" arrivalSpeed="27.32" duration="325.00" routeLength="2161.92" waitSteps="82" timeLoss="123.30" rerouteNo="0" devices="tripinfo_7_4.2" vType="DEFAULT_VEHTYPE" speedFactor="1.00" vaporized=""/>
    <tripinfo id="7_1.45" depart="556.00" departLane="67209975_0" departPos="5.10" departSpeed="0.00" departDelay="-0.70" arrival="866.00" arrivalLane="84515126_0" arrivalPos="177.75" arrivalSpeed="5.41" duration="310.00" routeLength="1851.99" waitSteps="101" timeLoss="162.68" rerouteNo="0" devices="tripinfo_7_1.45" vType="DEFAULT_VEHTYPE" speedFactor="1.00" vaporized=""/>
    <tripinfo id="7_1.42" depart="519.00" departLane="67209975_0" departPos="5.10" departSpeed="0.00" departDelay="-0.58" arrival="869.00" arrivalLane="84515126_0" arrivalPos="177.75" arrivalSpeed="5.10" duration="350.00" routeLength="1851.99" waitSteps="135" timeLoss="203.31" rerouteNo="0" devices="tripinfo_7_1.42" vType="DEFAULT_VEHTYPE" speedFactor="1.00" vaporized=""/>
    <tripinfo id="7_1.44" depart="544.00" departLane="67209975_0" departPos="5.10" departSpeed="0.00" departDelay="-0.32" arrival="873.00" arrivalLane="84515126_0" arrivalPos="177.75" arrivalSpeed="5.02" duration="329.00" routeLength="1851.99" waitSteps="110" timeLoss="182.18" rerouteNo="0" devices="tripinfo_7_1.44" vType="DEFAULT_VEHTYPE" speedFactor="1.00" vaporized=""/>
    <tripinfo id="7_1.43" depart="531.00" departLane="67209975_0" departPos="5.10" departSpeed="0.00" departDelay="-0.95" arrival="875.00" arrivalLane="-223785629_0" arrivalPos="4.99" arrivalSpeed="5.19" duration="344.00" routeLength="3331.62" waitSteps="74" timeLoss="142.96" rerouteNo="1" devices="tripinfo_7_1.43" vType="DEFAULT_VEHTYPE" speedFactor="1.00" vaporized=""/>
    <tripinfo id="7_1.39" depart="482.00" departLane="67209975_0" departPos="5.10" departSpeed="0.00" departDelay="-0.47" arrival="918.00" arrivalLane="161947715#0_0" arrivalPos="11.96" arrivalSpeed="4.68" duration="436.00" routeLength="2153.42" waitSteps="177" timeLoss="236.12" rerouteNo="1" devices="tripinfo_7_1.39" vType="DEFAULT_VEHTYPE" speedFactor="1.00" vaporized=""/>
    <tripinfo id="7_1.41" depart="507.00" departLane="67209975_0" departPos="5.10" departSpeed="0.00" departDelay="-0.21" arrival="922.00" arrivalLane="161947715#0_0" arrivalPos="11.96" arrivalSpeed="4.39" duration="415.00" routeLength="2153.42" waitSteps="152" timeLoss="214.69" rerouteNo="1" devices="tripinfo_7_1.41" vType="DEFAULT_VEHTYPE" speedFactor="1.00" vaporized=""/>
    <tripinfo id="7_1.40" depart="494.00" departLane="67209975_0" departPos="5.10" departSpeed="0.00" departDelay="-0.84" arrival="926.00" arrivalLane="161947715#0_0" arrivalPos="11.96" arrivalSpeed="5.41" duration="432.00" routeLength="2153.42" waitSteps="166" timeLoss="231.79" rerouteNo="1" devices="tripinfo_7_1.40" vType="DEFAULT_VEHTYPE" speedFactor="1.00" vaporized=""/>
    <tripinfo id="7_1.47" depart="581.00" departLane="67209975_0" departPos="5.10" departSpeed="0.00" departDelay="-0.44" arrival="935.00" arrivalLane="161947715#0_0" arrivalPos="11.96" arrivalSpeed="4.81" duration="354.00" routeLength="2153.42" waitSteps="86" timeLoss="154.26" rerouteNo="1" devices="tripinfo_7_1.47" vType="DEFAULT_VEHTYPE" speedFactor="1.00" vaporized=""/>
    <tripinfo id="7_3.22" depart="582.00" departLane="61843390#0_0" departPos="5.10" departSpeed="0.00" departDelay="-0.34" arrival="949.00" arrivalLane="420910011#1_0" arrivalPos="105.76" arrivalSpeed="27.09" duration="367.00" routeLength="6076.22" waitSteps="101" timeLoss="147.84" rerouteNo="0" devices="tripinfo_7_3.22" vType="DEFAULT_VEHTYPE" speedFactor="1.00" vaporized=""/>