<?xml version="1.0" encoding="UTF-8"?>

<!-- generated on 月 10/23 20:03:22 2017 by SUMO gui Version 0.30.0
<?xml version="1.0" encoding="UTF-8"?>

<configuration xmlns:xsi="http://www.w3.org/2001/XMLSchema-instance" xsi:noNamespaceSchemaLocation="http://sumo.dlr.de/xsd/sumoConfiguration.xsd">

    <input>
        <net-file value="../data/parking.net.xml"/>
        <route-files value="../data/parking.rou.xml"/>
    </input>

    <output>
        <tripinfo-output value="../output/tripinfo.xml"/>
    </output>

    <time>
        <begin value="0"/>
        <end value="3600"/>
    </time>

    <traci_server>
        <remote-port value="8873"/>
    </traci_server>

</configuration>
-->

<tripinfos xmlns:xsi="http://www.w3.org/2001/XMLSchema-instance" xsi:noNamespaceSchemaLocation="http://sumo.dlr.de/xsd/tripinfo_file.xsd">
    <tripinfo id="flow01.12" depart="199.00" departLane="in_0" departPos="5.10" departSpeed="0.00" departDelay="-0.99" arrival="213.00" arrivalLane="out_0" arrivalPos="22.25" arrivalSpeed="13.40" duration="14.00" routeLength="115.00" waitSteps="0" timeLoss="4.98" rerouteNo="0" devices="tripinfo_flow01.12" vType="DEFAULT_VEHTYPE" speedFactor="1.00" vaporized=""/>
    <tripinfo id="flow01.13" depart="216.00" departLane="in_0" departPos="5.10" departSpeed="0.00" departDelay="-0.66" arrival="230.00" arrivalLane="out_0" arrivalPos="22.25" arrivalSpeed="13.57" duration="14.00" routeLength="115.00" waitSteps="0" timeLoss="5.00" rerouteNo="0" devices="tripinfo_flow01.13" vType="DEFAULT_VEHTYPE" speedFactor="1.00" vaporized=""/>
    <tripinfo id="flow01.14" depart="233.00" departLane="in_0" departPos="5.10" departSpeed="0.00" departDelay="-0.32" arrival="247.00" arrivalLane="out_0" arrivalPos="22.25" arrivalSpeed="12.78" duration="14.00" routeLength="115.00" waitSteps="0" timeLoss="4.84" rerouteNo="0" devices="tripinfo_flow01.14" vType="DEFAULT_VEHTYPE" speedFactor="1.00" vaporized=""/>
    <tripinfo id="flow01.1" depart="16.00" departLane="in_0" departPos="5.10" departSpeed="0.00" departDelay="-0.67" arrival="257.00" arrivalLane="out_0" arrivalPos="22.25" arrivalSpeed="13.16" duration="241.00" routeLength="245.80" waitSteps="0" timeLoss="14.11" rerouteNo="2" devices="tripinfo_flow01.1" vType="DEFAULT_VEHTYPE" speedFactor="1.00" vaporized=""/>
    <tripinfo id="flow01.15" depart="249.00" departLane="in_0" departPos="5.10" departSpeed="0.00" departDelay="-0.99" arrival="262.00" arrivalLane="out_0" arrivalPos="22.25" arrivalSpeed="13.30" duration="13.00" routeLength="115.00" waitSteps="0" timeLoss="4.66" rerouteNo="0" devices="tripinfo_flow01.15" vType="DEFAULT_VEHTYPE" speedFactor="1.00" vaporized=""/>
    <tripinfo id="flow01.4" depart="66.00" departLane="in_0" departPos="5.10" departSpeed="0.00" departDelay="-0.66" arrival="279.00" arrivalLane="out_0" arrivalPos="22.25" arrivalSpeed="13.51" duration="213.00" routeLength="245.37" waitSteps="0" timeLoss="9.29" rerouteNo="2" devices="tripinfo_flow01.4" vType="DEFAULT_VEHTYPE" speedFactor="1.00" vaporized=""/>
    <tripinfo id="flow01.0" depart="0.00" departLane="in_0" departPos="5.10" departSpeed="0.00" departDelay="0.00" arrival="297.00" arrivalLane="out_0" arrivalPos="22.25" arrivalSpeed="12.78" duration="297.00" routeLength="245.96" waitSteps="0" timeLoss="9.87" rerouteNo="2" devices="tripinfo_flow01.0" vType="DEFAULT_VEHTYPE" speedFactor="1.00" vaporized=""/>
    <tripinfo id="flow01.6" depart="100.00" departLane="in_0" departPos="5.10" departSpeed="0.00" departDelay="0.00" arrival="308.00" arrivalLane="out_0" arrivalPos="22.25" arrivalSpeed="13.07" duration="208.00" routeLength="245.26" waitSteps="0" timeLoss="14.12" rerouteNo="2" devices="tripinfo_flow01.6" vType="DEFAULT_VEHTYPE" speedFactor="1.00" vaporized=""/>
    <tripinfo id="flow01.3" depart="50.00" departLane="in_0" departPos="5.10" departSpeed="0.00" departDelay="0.00" arrival="321.00" arrivalLane="out_0" arrivalPos="22.25" arrivalSpeed="13.85" duration="271.00" routeLength="244.68" waitSteps="0" timeLoss="11.26" rerouteNo="2" devices="tripinfo_flow01.3" vType="DEFAULT_VEHTYPE" speedFactor="1.00" vaporized=""/>
    <tripinfo id="flow01.2" depart="33.00" departLane="in_0" departPos="5.10" departSpeed="0.00" departDelay="-0.33" arrival="323.00" arrivalLane="out_0" arrivalPos="22.25" arrivalSpeed="12.92" duration="290.00" routeLength="245.85" waitSteps="0" timeLoss="13.09" rerouteNo="2" devices="tripinfo_flow01.2" vType="DEFAULT_VEHTYPE" speedFactor="1.00" vaporized=""/>
    <tripinfo id="flow01.9" depart="149.00" departLane="in_0" departPos="5.10" departSpeed="0.00" departDelay="-0.99" arrival="329.00" arrivalLane="out_0" arrivalPos="22.25" arrivalSpeed="13.82" duration="180.00" routeLength="245.27" waitSteps="0" timeLoss="9.22" rerouteNo="2" devices="tripinfo_flow01.9" vType="DEFAULT_VEHTYPE" speedFactor="1.00" vaporized=""/>
    <tripinfo id="flow01.5" depart="83.00" departLane="in_0" departPos="5.10" departSpeed="0.00" departDelay="-0.33" arrival="342.00" arrivalLane="out_0" arrivalPos="22.25" arrivalSpeed="13.22" duration="259.00" routeLength="245.22" waitSteps="0" timeLoss="12.61" rerouteNo="2" devices="tripinfo_flow01.5" vType="DEFAULT_VEHTYPE" speedFactor="1.00" vaporized=""/>
    <tripinfo id="flow01.7" depart="116.00" departLane="in_0" departPos="5.10" departSpeed="0.00" departDelay="-0.66" arrival="363.00" arrivalLane="out_0" arrivalPos="22.25" arrivalSpeed="13.89" duration="247.00" routeLength="245.27" waitSteps="0" timeLoss="10.70" rerouteNo="2" devices="tripinfo_flow01.7" vType="DEFAULT_VEHTYPE" speedFactor="1.00" vaporized=""/>
    <tripinfo id="flow01.10" depart="166.00" departLane="in_0" departPos="5.10" departSpeed="0.00" departDelay="-0.66" arrival="378.00" arrivalLane="out_0" arrivalPos="22.25" arrivalSpeed="13.13" duration="212.00" routeLength="245.22" waitSteps="0" timeLoss="14.18" rerouteNo="2" devices="tripinfo_flow01.10" vType="DEFAULT_VEHTYPE" speedFactor="1.00" vaporized=""/>
    <tripinfo id="flow01.11" depart="183.00" departLane="in_0" departPos="5.10" departSpeed="0.00" departDelay="-0.33" arrival="388.00" arrivalLane="out_0" arrivalPos="22.25" arrivalSpeed="12.62" duration="205.00" routeLength="244.68" waitSteps="0" timeLoss="12.54" rerouteNo="2" devices="tripinfo_flow01.11" vType="DEFAULT_VEHTYPE" speedFactor="1.00" vaporized=""/>
    <tripinfo id="flow01.8" depart="133.00" departLane="in_0" departPos="5.10" departSpeed="0.00" departDelay="-0.33" arrival="458.00" arrivalLane="out_0" arrivalPos="22.25" arrivalSpeed="13.76" duration="325.00" routeLength="245.81" waitSteps="0" timeLoss="11.03" rerouteNo="2" devices="tripinfo_flow01.8" vType="DEFAULT_VEHTYPE" speedFactor="1.00" vaporized=""/>
    <tripinfo id="flow01.27" depart="449.00" departLane="in_0" departPos="5.10" departSpeed="0.00" departDelay="-0.98" arrival="463.00" arrivalLane="out_0" arrivalPos="22.25" arrivalSpeed="13.47" duration="14.00" routeLength="115.00" waitSteps="0" timeLoss="4.80" rerouteNo="0" devices="tripinfo_flow01.27" vType="DEFAULT_VEHTYPE" speedFactor="1.00" vaporized=""/>
    <tripinfo id="flow01.29" depart="483.00" departLane="in_0" departPos="5.10" departSpeed="0.00" departDelay="-0.31" arrival="497.00" arrivalLane="out_0" arrivalPos="22.25" arrivalSpeed="13.71" duration="14.00" routeLength="115.00" waitSteps="0" timeLoss="4.89" rerouteNo="0" devices="tripinfo_flow01.29" vType="DEFAULT_VEHTYPE" speedFactor="1.00" vaporized=""/>
    <tripinfo id="flow01.17" depart="283.00" departLane="in_0" departPos="5.10" departSpeed="0.00" departDelay="-0.32" arrival="544.00" arrivalLane="out_0" arrivalPos="22.25" arrivalSpeed="12.75" duration="261.00" routeLength="245.37" waitSteps="0" timeLoss="10.53" rerouteNo="2" devices="tripinfo_flow01.17" vType="DEFAULT_VEHTYPE" speedFactor="1.00" vaporized=""/>
    <tripinfo id="flow01.21" depart="349.00" departLane="in_0" departPos="5.10" departSpeed="0.00" departDelay="-0.99" arrival="557.00" arrivalLane="out_0" arrivalPos="22.25" arrivalSpeed="13.24" duration="208.00" routeLength="245.27" waitSteps="0" timeLoss="11.84" rerouteNo="2" devices="tripinfo_flow01.21" vType="DEFAULT_VEHTYPE" speedFactor="1.00" vaporized=""/>
    <tripinfo id="flow01.20" depart="333.00" departLane="in_0" departPos="5.10" departSpeed="0.00" departDelay="-0.32" arrival="560.00" arrivalLane="out_0" arrivalPos="22.25" arrivalSpeed="12.87" duration="227.00" routeLength="244.68" waitSteps="0" timeLoss="10.50" rerouteNo="2" devices="tripinfo_flow01.20" vType="DEFAULT_VEHTYPE" speedFactor="1.00" vaporized=""/>
</tripinfos>
